68
Lattice="10.8 0.0 0.0 5.4 9.353074360871938 0.0 0.0 0.0 26.4152" Properties=species:S:1:pos:R:3:energies:R:1:forces:R:3 energy=-603.6065673828125 free_energy=-603.6065673828125 stress="0.022199256345629692 -4.4231812353245914e-05 0.00023305467038881034 -4.4231812353245914e-05 0.022252338007092476 8.820035873213783e-05 0.00023305467038881034 8.820035873213783e-05 0.007964580319821835" pbc="T T T"
Ru       0.00000000       1.55884573      10.00000000      -8.66880894       0.00222845       0.00063652       0.63012958
Ru       2.70000000       1.55884573      10.00000000      -8.67024803      -0.00623138      -0.00187267       0.61764532
Ru       5.40000000       1.55884573      10.00000000      -8.66200733       0.00734155       0.00406212       0.60007703
Ru       8.10000000       1.55884573      10.00000000      -8.66315842      -0.00473395      -0.00386024       0.61053318
Ru       1.35000000       3.89711432      10.00000000      -8.66488075      -0.00335415       0.00612878       0.62202293
Ru       4.05000000       3.89711432      10.00000000      -8.66837215       0.00137580       0.00441024       0.61194313
Ru       6.75000000       3.89711432      10.00000000      -8.66332054      -0.00574919      -0.00238072       0.61070842
Ru       9.45000000       3.89711432      10.00000000      -8.66928673       0.01197968       0.00682183       0.61349434
Ru       2.70000000       6.23538291      10.00000000      -8.66922569      -0.00381624      -0.00240413       0.60997504
Ru       5.40000000       6.23538291      10.00000000      -8.66557884      -0.00052581       0.00342859       0.62230182
Ru       8.10000000       6.23538291      10.00000000      -8.66868973       0.00175110       0.00177452       0.63067931
Ru      10.80000000       6.23538291      10.00000000      -8.66498470       0.00357028      -0.00618335       0.62204146
Ru       4.05000000       8.57365150      10.00000000      -8.66555214       0.00278205      -0.00217707       0.62223572
Ru       6.75000000       8.57365150      10.00000000      -8.66152382       0.00003391      -0.00007139       0.62803054
Ru       9.45000000       8.57365150      10.00000000      -8.67024899      -0.00499186      -0.00452909       0.61752397
Ru      12.15000000       8.57365150      10.00000000      -8.66840553       0.00466806      -0.00090888       0.61187536
Ru       0.00000000       0.00000000      12.13840000      -9.35139084       0.03278347       0.00368705      -0.64116162
Ru       2.70000000       0.00000000      12.13840000      -9.35555649      -0.03428032      -0.02153579      -0.64517343
Ru       5.40000000       0.00000000      12.13840000      -9.34700298       0.02363062       0.02871262      -0.62511730
Ru       8.10000000       0.00000000      12.13840000      -9.34627151       0.01538227       0.04299762      -0.60948408
Ru       1.35000000       2.33826859      12.13840000      -9.35806561      -0.01022422       0.00481302      -0.63360214
Ru       4.05000000       2.33826859      12.13840000      -9.34677792       0.03769923       0.00447974      -0.62505156
Ru       6.75000000       2.33826859      12.13840000      -9.35637188       0.01129989       0.00509311      -0.55955440
Ru       9.45000000       2.33826859      12.13840000      -9.35084152      -0.01375283      -0.01826050      -0.55473208
Ru       2.70000000       4.67653718      12.13840000      -9.35654831      -0.00104192       0.00765629      -0.63727385
Ru       5.40000000       4.67653718      12.13840000      -9.34648609       0.04663612      -0.00940383      -0.60674620
Ru       8.10000000       4.67653718      12.13840000      -9.35117054      -0.02176976      -0.00446692      -0.55131024
Ru      10.80000000       4.67653718      12.13840000      -9.35517502       0.01853901       0.01004881      -0.62535262
Ru       4.05000000       7.01480577      12.13840000      -9.35285378       0.01418197       0.00606371      -0.63979214
Ru       6.75000000       7.01480577      12.13840000      -9.35140800       0.02104677       0.02336107      -0.63931125
Ru       9.45000000       7.01480577      12.13840000      -9.35793304      -0.00106708      -0.01408781      -0.63227051
Ru      12.15000000       7.01480577      12.13840000      -9.35645390       0.00732919      -0.00750495      -0.63779128
Ru      -0.00752543       1.57306865      14.31354154      -9.37683201      -0.00652095      -0.00516139       0.00487151
Ru       2.70172535       1.56368485      14.30261129      -9.34596920      -0.00074257      -0.00393040      -0.00873754
Ru       5.38698306       1.55066791      14.28253224      -9.34329796      -0.00168176       0.00026392       0.00264402
Ru       8.12754702       1.56334676      14.30730309      -9.39328861      -0.00455517       0.00069483       0.00555961
Ru       1.35265135       3.89912887      14.29487394      -9.34785557      -0.00435524       0.00454311      -0.00136493
Ru       4.05898637       3.89690863      14.30064517      -9.35071945       0.00124073       0.00156254      -0.00368491
Ru       6.76785597       3.91745355      14.30790947      -9.39178276      -0.00287336      -0.00184017       0.00434140
Ru       9.44788699       3.89513973      14.32085094      -9.35360622      -0.00338655       0.00058196       0.00476552
Ru       2.70395143       6.23736086      14.29406355      -9.33483791       0.00072599      -0.00185731      -0.00345575
Ru       5.40006893       6.23625936      14.29881976      -9.34194183      -0.00187362       0.00140802       0.00374522
Ru       8.10900635       6.22092492      14.31359585      -9.37476444      -0.00705738      -0.00300666       0.00094672
Ru      10.80402153       6.23582823      14.29499586      -9.34738445      -0.00414774      -0.00598223      -0.00235530
Ru       4.05164531       8.57247998      14.29870213      -9.34224701       0.00009927      -0.00430309       0.00200874
Ru       6.75664804       8.57726175      14.29533407      -9.35979176      -0.00498400      -0.00729268       0.00863835
Ru       9.45531873       8.57202299      14.30240839      -9.34606171      -0.00314059      -0.00182590      -0.00639910
Ru      12.15482487       8.58006757      14.30062335      -9.35084343      -0.00175158       0.00382051      -0.00978522
Ru       0.00821865      -0.00046911      16.36610976      -8.70688534      -0.00328757      -0.00490277      -0.00524890
Ru       2.70718233       0.00311953      16.36801255      -8.72219563      -0.01020302      -0.00439861       0.00070740
Ru       5.40258253      -0.00417864      16.36800342      -8.72110748      -0.00579000       0.00433508       0.00625669
Ru       8.10952256      -0.00966620      16.36719496      -8.71266651      -0.00006969       0.00175289       0.00447261
Ru       1.36111700       2.34620762      16.36671741      -8.72787571      -0.01094638      -0.00394307       0.00354444
Ru       4.04869431       2.34113247      16.36802997      -8.72067928      -0.00124316      -0.00356524       0.00678127
Ru       6.74128955       2.33212543      16.41469227      -8.86228275       0.00391319       0.00133338       0.01191810
Ru       9.47718098       2.32476073      16.41918623      -8.82224464      -0.00440910      -0.00911378      -0.01222274
Ru       2.71354044       4.68105966      16.36754737      -8.71938419      -0.00348753      -0.00185543       0.00475774
Ru       5.39766790       4.68878467      16.36830502      -8.71093082      -0.00376440      -0.00180711      -0.00389436
Ru       8.10315581       4.70475176      16.41979658      -8.81939030      -0.00905509       0.00180668      -0.01422634
Ru      10.82398291       4.68948458      16.36919393      -8.72379017      -0.00749880      -0.00312333      -0.00158659
Ru       4.05751262       7.01833772      16.36796771      -8.73248386      -0.00543833      -0.00453507      -0.00347239
Ru       6.75481691       7.02042344      16.36628560      -8.70753670      -0.00892894       0.00107897      -0.00342558
Ru       9.46231362       7.01871973      16.36677016      -8.72839832      -0.00390285      -0.00554509       0.00434657
Ru      12.16170546       7.02330732      16.36746271      -8.71934795      -0.00817572      -0.00652998       0.00755545
C        8.86633538       3.55618799      18.80753430      -7.98335695       0.00548430      -0.01232479       0.00524725
O        8.27915841       4.57992935      18.98598354      -7.13950014      -0.02364504       0.03037520      -0.00728689
O        9.45560603       2.53015656      18.97046457      -7.15964270       0.00605147      -0.01730130       0.00153267
H        6.93174019       2.45333268      18.01746554      -3.46108747      -0.01331946      -0.00394013      -0.02498721
