68
Lattice="10.8 0.0 0.0 5.4 9.353074360871938 0.0 0.0 0.0 26.4152" Properties=species:S:1:pos:R:3:energies:R:1:forces:R:3 energy=-597.1468505859375 free_energy=-597.1468505859375 stress="0.0222471971064806 2.607171882118564e-05 0.00022479708422906697 2.607171882118564e-05 0.022301893681287766 -3.553469286998734e-05 0.00022479708422906697 -3.553469286998734e-05 0.007912258617579937" pbc="T T T"
Ru       0.00000000       1.55884573      10.00000000      -8.66522217      -0.01573807       0.00441161       0.59811896
Ru       2.70000000       1.55884573      10.00000000      -8.66414452       0.01460920       0.00328906       0.58814234
Ru       5.40000000       1.55884573      10.00000000      -8.66764164       0.00035701       0.00453009       0.60877335
Ru       8.10000000       1.55884573      10.00000000      -8.66632557       0.00281746       0.00716159       0.61429608
Ru       1.35000000       3.89711432      10.00000000      -8.66332531       0.00058598       0.00084416       0.61462712
Ru       4.05000000       3.89711432      10.00000000      -8.66837311       0.00061609      -0.00445957       0.61439347
Ru       6.75000000       3.89711432      10.00000000      -8.66828442       0.00349702       0.00007307       0.61706173
Ru       9.45000000       3.89711432      10.00000000      -8.66756248      -0.00465642      -0.00678526       0.61240733
Ru       2.70000000       6.23538291      10.00000000      -8.66499329      -0.00848523       0.00676041       0.62607801
Ru       5.40000000       6.23538291      10.00000000      -8.66622257       0.00862300      -0.00010082       0.62490439
Ru       8.10000000       6.23538291      10.00000000      -8.66691685      -0.00760557      -0.00419394       0.61821610
Ru      10.80000000       6.23538291      10.00000000      -8.67058659       0.00765920       0.00693795       0.62730908
Ru       4.05000000       8.57365150      10.00000000      -8.66336346       0.00074120      -0.00026370       0.61654741
Ru       6.75000000       8.57365150      10.00000000      -8.66646576       0.00133064      -0.01085703       0.58812004
Ru       9.45000000       8.57365150      10.00000000      -8.66259480       0.00000327       0.00118790       0.60137594
Ru      12.15000000       8.57365150      10.00000000      -8.66664696      -0.00075588      -0.01224997       0.62810993
Ru       0.00000000       0.00000000      12.13840000      -9.35228062       0.03794952       0.00950592      -0.52468526
Ru       2.70000000       0.00000000      12.13840000      -9.35627842      -0.01496459       0.00491526      -0.47907293
Ru       5.40000000       0.00000000      12.13840000      -9.34533691       0.00254279      -0.01976408      -0.64150971
Ru       8.10000000       0.00000000      12.13840000      -9.35343933       0.01934994      -0.01598581      -0.65140462
Ru       1.35000000       2.33826859      12.13840000      -9.35235596       0.00807070      -0.01818901      -0.54292125
Ru       4.05000000       2.33826859      12.13840000      -9.34672070      -0.02673273      -0.00409233      -0.59900701
Ru       6.75000000       2.33826859      12.13840000      -9.35372543       0.01311077      -0.00416898      -0.62276316
Ru       9.45000000       2.33826859      12.13840000      -9.35892868       0.04399746      -0.01595186      -0.57970053
Ru       2.70000000       4.67653718      12.13840000      -9.35031128       0.00828908      -0.00959220      -0.65337139
Ru       5.40000000       4.67653718      12.13840000      -9.35593414       0.01797535       0.00017021      -0.63982463
Ru       8.10000000       4.67653718      12.13840000      -9.35763359       0.00730408      -0.00283084      -0.62912023
Ru      10.80000000       4.67653718      12.13840000      -9.35141945       0.00888481      -0.02333811      -0.65866274
Ru       4.05000000       7.01480577      12.13840000      -9.35242939       0.00518422       0.01170514      -0.65253657
Ru       6.75000000       7.01480577      12.13840000      -9.34922981       0.00213853       0.02870772      -0.58672339
Ru       9.45000000       7.01480577      12.13840000      -9.34273720       0.01251983       0.01025168      -0.65531820
Ru      12.15000000       7.01480577      12.13840000      -9.34247780       0.02573012       0.01008542      -0.61174136
Ru       0.00755872       1.54772349      14.30955916      -9.40493393      -0.00730830       0.00179153      -0.00505161
Ru       2.70281699       1.55749149      14.30126859      -9.40470123      -0.00210434       0.00112060      -0.01197667
Ru       5.40148776       1.55651778      14.29853941      -9.36563492      -0.00852007      -0.00144004      -0.00495729
Ru       8.10371283       1.55970134      14.29543160      -9.35871696      -0.00208754       0.00179866      -0.00489788
Ru       1.35356198       3.90892670      14.28919100      -9.37152576      -0.00184241      -0.00294206      -0.00148161
Ru       4.05317514       3.89209918      14.29967206      -9.35588932      -0.00400545      -0.00097032      -0.01036207
Ru       6.75481878       3.89333946      14.29118401      -9.34785461      -0.00246382      -0.00151076      -0.01307508
Ru       9.45586553       3.89285078      14.29639051      -9.36111736      -0.00738480       0.00206282      -0.00516372
Ru       2.70941811       6.23208967      14.30398521      -9.34333992      -0.00819300       0.00124586       0.00015762
Ru       5.40817373       6.23579061      14.30047023      -9.36342430      -0.00384068      -0.00047963      -0.01787931
Ru       8.10424670       6.24000444      14.30041394      -9.36853218      -0.00219120       0.00546134      -0.00999111
Ru      10.79876547       6.23038469      14.30831157      -9.33954430      -0.00713979       0.00697792       0.01182453
Ru       4.05517827       8.57036157      14.29798614      -9.39836597      -0.00524993       0.00808304      -0.00492486
Ru       6.75130739       8.57862609      14.31310595      -9.43183804      -0.00169034       0.00106629      -0.01362163
Ru       9.46398561       8.56446657      14.28905220      -9.39444542       0.00015142       0.00166761       0.00535147
Ru      12.15508254       8.57611020      14.30537646      -9.33240604      -0.01068849      -0.00043405       0.00865642
Ru      -0.03443381       0.00019524      16.43593785      -8.61303711      -0.00333949       0.00706672      -0.00696525
Ru       2.73395065       0.00306208      16.48812719      -8.77049828      -0.00151914       0.00014470      -0.03076397
Ru       5.40583819      -0.00066521      16.37313422      -8.74422169      -0.00562208      -0.00248118      -0.00735565
Ru       8.11212719      -0.00177431      16.37241034      -8.76539707      -0.01156909       0.00227398      -0.00384793
Ru       1.35304256       2.35445957      16.44072894      -8.78266335      -0.00907809      -0.00861340       0.00693428
Ru       4.07656583       2.34938277      16.36636486      -8.72132397      -0.00524729      -0.00139522       0.00863519
Ru       6.75712874       2.33347675      16.36677072      -8.71058083      -0.00507601      -0.00133197       0.00808073
Ru       9.43424892       2.35019163      16.36677196      -8.72072792      -0.00617746       0.00228088       0.00114195
Ru       2.70202012       4.66283239      16.37219064      -8.74705982      -0.00926699       0.00570605       0.00326415
Ru       5.40692466       4.67808527      16.36610946      -8.72516441      -0.00561804      -0.00028252       0.01203011
Ru       8.10460550       4.67718575      16.36694155      -8.72019196      -0.00060945       0.00431004       0.00844374
Ru      10.81196075       4.65961502      16.37187575      -8.75697899      -0.00627241       0.00887264       0.00524265
Ru       4.06448414       7.01203356      16.37394769      -8.74788380      -0.01461487       0.00289209       0.00547111
Ru       6.75254143       6.97443779      16.36304165      -8.66866589      -0.00231566       0.00565683       0.01052317
Ru       9.45608804       7.00611092      16.37631537      -8.71610546       0.00169597       0.00460514      -0.00844421
Ru      12.15504543       7.01143537      16.37136820      -8.69886971      -0.01116445       0.00294977      -0.00897531
C        1.41984945       0.78129572      17.88859166      -7.95294809      -0.00258811       0.01504374       0.01665600
H        2.56805409      -0.29287316      18.11127588      -3.64940310      -0.00428013      -0.01127706       0.01501709
H        0.51383140       0.11859029      18.25268341      -3.95991850      -0.00163895       0.00638046       0.00401471
H        1.64533652       1.33171446      18.81171031      -3.75301838       0.00391178      -0.02401421      -0.03182791
