68
Lattice="10.8 0.0 0.0 5.4 9.353074360871938 0.0 0.0 0.0 26.4152" Properties=species:S:1:pos:R:3:energies:R:1:forces:R:3 energy=-597.7178344726562 free_energy=-597.7178344726562 stress="0.021933110430836678 9.89872933132574e-05 -1.8532768081058748e-05 9.89872933132574e-05 0.02200821228325367 -4.064090899191797e-05 -1.8532768081058748e-05 -4.064090899191797e-05 0.007810854818671942" pbc="T T T"
Ru       0.00000000       1.55884573      10.00000000      -8.66463661      -0.01125210       0.00425575       0.58355176
Ru       2.70000000       1.55884573      10.00000000      -8.66618919       0.01170734       0.00653873       0.60434252
Ru       5.40000000       1.55884573      10.00000000      -8.66743183      -0.00033364       0.00434812       0.61092937
Ru       8.10000000       1.55884573      10.00000000      -8.66597366      -0.00127802       0.00552652       0.60240275
Ru       1.35000000       3.89711432      10.00000000      -8.66203976       0.00154889       0.00097307       0.60491133
Ru       4.05000000       3.89711432      10.00000000      -8.66677284       0.00376662      -0.01039011       0.61406046
Ru       6.75000000       3.89711432      10.00000000      -8.66770744      -0.00272650       0.00118306       0.61557198
Ru       9.45000000       3.89711432      10.00000000      -8.66798782      -0.00318374      -0.00594811       0.60270840
Ru       2.70000000       6.23538291      10.00000000      -8.66648197      -0.01245680       0.00971373       0.62644160
Ru       5.40000000       6.23538291      10.00000000      -8.66485119       0.00954579      -0.00032154       0.61597353
Ru       8.10000000       6.23538291      10.00000000      -8.66755009      -0.00513922      -0.00006895       0.61285335
Ru      10.80000000       6.23538291      10.00000000      -8.67103958       0.00599814       0.00484515       0.61669791
Ru       4.05000000       8.57365150      10.00000000      -8.66300488       0.00026788      -0.00224131       0.60077572
Ru       6.75000000       8.57365150      10.00000000      -8.66543961      -0.00176406      -0.00977986       0.59142399
Ru       9.45000000       8.57365150      10.00000000      -8.66919422       0.00189192      -0.00155471       0.60883349
Ru      12.15000000       8.57365150      10.00000000      -8.66718197       0.00098466      -0.00796773       0.62230909
Ru       0.00000000       0.00000000      12.13840000      -9.35717392       0.05067127       0.01319670      -0.51460564
Ru       2.70000000       0.00000000      12.13840000      -9.35681725      -0.02781409       0.01589057      -0.47499651
Ru       5.40000000       0.00000000      12.13840000      -9.34787846      -0.01201981       0.00244040      -0.61698824
Ru       8.10000000       0.00000000      12.13840000      -9.35118008      -0.00455244      -0.02297173      -0.65064877
Ru       1.35000000       2.33826859      12.13840000      -9.36003208       0.01330000      -0.03670412      -0.51840514
Ru       4.05000000       2.33826859      12.13840000      -9.34117794      -0.03690000      -0.01854161      -0.60641080
Ru       6.75000000       2.33826859      12.13840000      -9.35550690      -0.02085637      -0.00800271      -0.62502265
Ru       9.45000000       2.33826859      12.13840000      -9.34913254       0.02909830      -0.01247989      -0.57804710
Ru       2.70000000       4.67653718      12.13840000      -9.35118008      -0.01734515      -0.02796972      -0.67197233
Ru       5.40000000       4.67653718      12.13840000      -9.35465336       0.01184097      -0.00868504      -0.64098859
Ru       8.10000000       4.67653718      12.13840000      -9.35625744      -0.01110013       0.01560281      -0.63281137
Ru      10.80000000       4.67653718      12.13840000      -9.35030460       0.00841905      -0.00492727      -0.66042566
Ru       4.05000000       7.01480577      12.13840000      -9.35157394      -0.00126279       0.02689907      -0.66662502
Ru       6.75000000       7.01480577      12.13840000      -9.34337997       0.00170730       0.02854215      -0.60077822
Ru       9.45000000       7.01480577      12.13840000      -9.34739208      -0.01252410       0.00924024      -0.62147331
Ru      12.15000000       7.01480577      12.13840000      -9.33061409       0.02046295       0.00549614      -0.65213799
Ru      -0.00441171       1.55352116      14.30202800      -9.40967941       0.00257561      -0.00039489      -0.00040776
Ru       2.69779741       1.54772543      14.31466897      -9.39358425      -0.00087321       0.00075370       0.00547233
Ru       5.39024634       1.55642703      14.29814377      -9.37692070      -0.00181634       0.00057557      -0.00118734
Ru       8.10507530       1.56258210      14.29303936      -9.36371994       0.00178014       0.00119225      -0.00096130
Ru       1.35051269       3.91681028      14.28029623      -9.37260818      -0.00104728      -0.00047601       0.00186867
Ru       4.04800933       3.89264123      14.29827451      -9.35709953       0.00045303      -0.00227613       0.00043701
Ru       6.74651918       3.89663583      14.29194264      -9.34976959       0.00228024      -0.00096676      -0.00511297
Ru       9.45087393       3.88841988      14.29400219      -9.36223602       0.00021066      -0.00119133      -0.00073745
Ru       2.70715595       6.23207768      14.30482263      -9.33324909      -0.00016280       0.00046999       0.00115546
Ru       5.40073233       6.23475683      14.29774698      -9.35869312       0.00214726       0.00142117      -0.00107825
Ru       8.09833477       6.24304621      14.29862266      -9.37654591      -0.00095574       0.00206161      -0.00157499
Ru      10.79412525       6.23683575      14.30576419      -9.35636902       0.00069132      -0.00191495       0.00220981
Ru       4.04432153       8.56842526      14.29137804      -9.40374470       0.00031279       0.00209854       0.00227160
Ru       6.75169416       8.57977413      14.30998677      -9.42876911      -0.00050064       0.00116656       0.00470887
Ru       9.46695755       8.56256369      14.29042662      -9.36156559      -0.00320545       0.00263283       0.00093374
Ru      12.14643189       8.57488194      14.30391714      -9.35302639       0.00164497       0.00115462       0.00289664
Ru      -0.01417792      -0.00933708      16.44463434      -8.69174290       0.00359103       0.00093024      -0.00336590
Ru       2.69451701       0.00813627      16.48189733      -8.65062618      -0.00288067       0.00256343       0.00270734
Ru       5.41867121       0.01303764      16.39181241      -8.60311604      -0.00082441       0.00068791      -0.00087599
Ru       8.09675146       0.00133702      16.37302649      -8.78238201      -0.00060339      -0.00169403       0.00035124
Ru       1.35476516       2.36078101      16.44693422      -8.87994385       0.00180299      -0.00161445       0.00075549
Ru       4.06020029       2.35295538      16.36648991      -8.70802784      -0.00034031      -0.00115479      -0.00134351
Ru       6.74676565       2.33326368      16.36752121      -8.75076199       0.00124206       0.00146075      -0.00050612
Ru       9.42113758       2.35532391      16.36140098      -8.69007969      -0.00174163       0.00137631       0.00159577
Ru       2.69275932       4.66450182      16.37121615      -8.75976276       0.00096967       0.00202853      -0.00173969
Ru       5.39982497       4.67794571      16.36642564      -8.71276569      -0.00005998       0.00005840       0.00040085
Ru       8.09815572       4.68041429      16.36704448      -8.75423336      -0.00015232      -0.00118277      -0.00061140
Ru      10.80184663       4.66728450      16.37283436      -8.78485966       0.00179531       0.00264750      -0.00045021
Ru       4.05324765       7.01453852      16.37260155      -8.74552536      -0.00097551      -0.00041668      -0.00025438
Ru       6.74289489       6.98404469      16.36572492      -8.70537472       0.00124938       0.00371746      -0.00061678
Ru       9.44508961       6.98871967      16.39353625      -8.59229660       0.00058496       0.00021802      -0.00098578
Ru      12.16114438       7.00695303      16.36853017      -8.68785477       0.00284862      -0.00108054      -0.00299984
C        1.36842173       0.82635520      17.84717317      -8.17272854       0.00258739       0.00372951      -0.00562670
H        4.08580956      -0.80046415      17.50837081      -4.10305834      -0.00199803      -0.00134691      -0.00659860
H        0.36827862       0.24262078      18.19094707      -3.98497605      -0.00075224       0.00295474       0.00278555
H        1.76680107       1.08663088      18.83484741      -3.73235798       0.00142047       0.00367255       0.00503438
68
Lattice="10.8 0.0 0.0 5.4 9.353074360871938 0.0 0.0 0.0 26.4152" Properties=species:S:1:pos:R:3:energies:R:1:forces:R:3 energy=-597.0931396484375 free_energy=-597.0931396484375 stress="0.022237475961446762 4.684938176069409e-06 -0.00041162141133099794 4.684938176069409e-06 0.02220143750309944 0.00027500762371346354 -0.00041162141133099794 0.00027500762371346354 0.00797851663082838" pbc="T T T"
Ru       0.00000000       1.55884573      10.00000000      -8.66492558      -0.01276113       0.00647905       0.59617418
Ru       2.70000000       1.55884573      10.00000000      -8.66415119       0.01213947       0.00600969       0.58540994
Ru       5.40000000       1.55884573      10.00000000      -8.66628170       0.00253668       0.00490571       0.61198515
Ru       8.10000000       1.55884573      10.00000000      -8.66612053      -0.00028935       0.00777600       0.61134207
Ru       1.35000000       3.89711432      10.00000000      -8.66308784       0.00106265      -0.00013741       0.61591554
Ru       4.05000000       3.89711432      10.00000000      -8.66843414       0.00080187      -0.00821921       0.61741364
Ru       6.75000000       3.89711432      10.00000000      -8.66883373       0.00218034      -0.00107726       0.61468297
Ru       9.45000000       3.89711432      10.00000000      -8.66751003      -0.00567973      -0.00618360       0.61199665
Ru       2.70000000       6.23538291      10.00000000      -8.66497326      -0.00980793       0.00739703       0.62480325
Ru       5.40000000       6.23538291      10.00000000      -8.66700649       0.00721542       0.00215398       0.61884314
Ru       8.10000000       6.23538291      10.00000000      -8.66618347      -0.00389756      -0.00315033       0.61424690
Ru      10.80000000       6.23538291      10.00000000      -8.66933632       0.00594637       0.01007483       0.63042098
Ru       4.05000000       8.57365150      10.00000000      -8.66378880      -0.00042079      -0.00165793       0.61321551
Ru       6.75000000       8.57365150      10.00000000      -8.66477680       0.00002053      -0.01231780       0.57957363
Ru       9.45000000       8.57365150      10.00000000      -8.66443539       0.00292852      -0.00214259       0.60170650
Ru      12.15000000       8.57365150      10.00000000      -8.66687298      -0.00431759      -0.01021767       0.63224387
Ru       0.00000000       0.00000000      12.13840000      -9.34990692       0.02002320       0.01343255      -0.53181833
Ru       2.70000000       0.00000000      12.13840000      -9.35470676      -0.02588008       0.01243592      -0.45213977
Ru       5.40000000       0.00000000      12.13840000      -9.34246922      -0.01415049      -0.01903600      -0.63389564
Ru       8.10000000       0.00000000      12.13840000      -9.35093689      -0.00360404      -0.00813477      -0.66475141
Ru       1.35000000       2.33826859      12.13840000      -9.35050583      -0.00101397      -0.01884401      -0.53962749
Ru       4.05000000       2.33826859      12.13840000      -9.34599972      -0.04316051      -0.00638812      -0.59438151
Ru       6.75000000       2.33826859      12.13840000      -9.35811138      -0.00495537      -0.00380616      -0.62216133
Ru       9.45000000       2.33826859      12.13840000      -9.35947132       0.03245398      -0.01706443      -0.58543909
Ru       2.70000000       4.67653718      12.13840000      -9.35182858      -0.01339065      -0.00612437      -0.65597945
Ru       5.40000000       4.67653718      12.13840000      -9.35456181       0.01090712      -0.00570877      -0.64079791
Ru       8.10000000       4.67653718      12.13840000      -9.35771275      -0.00408782       0.00391185      -0.62600470
Ru      10.80000000       4.67653718      12.13840000      -9.35074997       0.00230419      -0.00715467      -0.66803432
Ru       4.05000000       7.01480577      12.13840000      -9.35240173      -0.01094577       0.01169187      -0.65324920
Ru       6.75000000       7.01480577      12.13840000      -9.34775066      -0.01453102       0.03128445      -0.58876592
Ru       9.45000000       7.01480577      12.13840000      -9.34315014       0.00465575       0.02209497      -0.63326389
Ru      12.15000000       7.01480577      12.13840000      -9.34362984       0.00660892       0.00645795      -0.60608625
Ru       0.00192618       1.55056324      14.30589329      -9.39488983      -0.01762637       0.00601956      -0.03098631
Ru       2.69843041       1.55519902      14.30498911      -9.39151478      -0.00643317       0.01601379      -0.01872848
Ru       5.39264984       1.55502889      14.29973592      -9.36606312      -0.00382950       0.00979967       0.00091504
Ru       8.09998712       1.56071093      14.29393523      -9.35851669      -0.00494276       0.00212269      -0.00107102
Ru       1.34916100       3.90867753      14.28954848      -9.37332535      -0.00546212       0.03315091      -0.03983746
Ru       4.04888019       3.89279025      14.29979422      -9.35800362       0.00063008       0.00062772      -0.00025103
Ru       6.74983623       3.89639742      14.28956484      -9.34846973      -0.00220194       0.00115567       0.00667450
Ru       9.44943245       3.89482591      14.29453742      -9.35704231      -0.00333191       0.00297799       0.00022850
Ru       2.70326862       6.23387089      14.30191660      -9.34412479      -0.00143902       0.00404487       0.00572703
Ru       5.40213246       6.23600929      14.29950637      -9.35995007       0.00057339      -0.00009828       0.00121509
Ru       8.09959487       6.24305250      14.30016638      -9.36807632      -0.01288442      -0.00061269       0.00378225
Ru      10.79203512       6.23488363      14.30817860      -9.33705235      -0.00747912       0.00761677       0.00162386
Ru       4.04501608       8.57105334      14.29600776      -9.39165878      -0.01331107      -0.00218092      -0.01335755
Ru       6.74619693       8.57691786      14.30546360      -9.40644741      -0.02032278       0.00488229       0.00748897
Ru       9.45665612       8.56880496      14.29819548      -9.38365078      -0.00236973      -0.00066449      -0.01171971
Ru      12.14619361       8.57929845      14.30761080      -9.33554077      -0.00756392      -0.00041238       0.00040735
Ru      -0.04116384      -0.00524097      16.43437437      -8.70476055      -0.01393531       0.00286928       0.00947528
Ru       2.69761714       0.00147432      16.53795653      -8.77332592      -0.00570060       0.02430785       0.12581150
Ru       5.39554542       0.00288629      16.37482966      -8.73882389      -0.00325162       0.00767900       0.01361343
Ru       8.10258044       0.00137449      16.37089545      -8.76489162      -0.00956675       0.00477280       0.00354863
Ru       1.33717982       2.37598119      16.42105815      -8.80466557      -0.02211201       0.03576707      -0.03037550
Ru       4.07141916       2.35217362      16.36345024      -8.70025539      -0.00306159       0.00619186       0.00640624
Ru       6.74805658       2.33694585      16.36868553      -8.70969868      -0.00925783       0.00305636      -0.00971985
Ru       9.42018299       2.35505159      16.36360440      -8.70277882      -0.03768438       0.02001309      -0.00467392
Ru       2.69787989       4.66905969      16.37308310      -8.73771095      -0.00542716       0.00348251      -0.00115714
Ru       5.39861479       4.67739378      16.36627835      -8.72571850      -0.00011206       0.00290507      -0.00204853
Ru       8.09862582       4.67825277      16.36833395      -8.71208858      -0.00998139       0.00712589      -0.01137338
Ru      10.80234533       4.66891429      16.37081743      -8.75559521      -0.00582084       0.00475336       0.00001683
Ru       4.05509237       7.01648625      16.37374390      -8.74146652      -0.01079658      -0.00785200       0.00168430
Ru       6.74694289       6.98382290      16.36426146      -8.69695663      -0.00453972       0.01184126       0.00883665
Ru       9.44451622       7.01447594      16.37531156      -8.73382854      -0.00794333      -0.00348114       0.01501559
Ru      12.14478112       7.01653984      16.37130409      -8.69853115      -0.00519659       0.00338097      -0.00211613
C        1.32432975       0.82563219      17.86049150      -7.93301821       0.06448188       0.13691877       0.04317078
H        2.78579084      -0.05604872      18.17869969      -3.58920527       0.09209016      -0.10020829      -0.11798946
H        0.49659861       0.20936127      18.37047768      -3.91749930       0.09903579      -0.11132812      -0.09190536
H        1.53021767       1.59827297      18.62938761      -3.80725980       0.06788296      -0.14537917       0.04809182
68
Lattice="10.8 0.0 0.0 5.4 9.353074360871938 0.0 0.0 0.0 26.4152" Properties=species:S:1:pos:R:3:energies:R:1:forces:R:3 energy=-597.5020751953125 free_energy=-597.5020751953125 stress="0.02236766740679741 3.3120848001999548e-06 -1.887284997792449e-05 3.3120848001999548e-06 0.022369327023625374 7.649901817785576e-06 -1.887284997792449e-05 7.649901817785576e-06 0.007918238639831543" pbc="T T T"
Ru       0.00000000       1.55884573      10.00000000      -8.66545773      -0.00543511       0.00320422       0.61350477
Ru       2.70000000       1.55884573      10.00000000      -8.66544724       0.00538510       0.00322746       0.61344373
Ru       5.40000000       1.55884573      10.00000000      -8.66532040      -0.00287490       0.00171914       0.61430496
Ru       8.10000000       1.55884573      10.00000000      -8.66528130       0.00280727       0.00170001       0.61434162
Ru       1.35000000       3.89711432      10.00000000      -8.66342068      -0.00000055      -0.00333399       0.62074268
Ru       4.05000000       3.89711432      10.00000000      -8.66538143       0.00019031      -0.00339221       0.61419106
Ru       6.75000000       3.89711432      10.00000000      -8.67174053      -0.00001213       0.00009457       0.60839313
Ru       9.45000000       3.89711432      10.00000000      -8.66538048      -0.00025598      -0.00345418       0.61413187
Ru       2.70000000       6.23538291      10.00000000      -8.66646767      -0.00510709       0.00305930       0.61867839
Ru       5.40000000       6.23538291      10.00000000      -8.66528988       0.00301673       0.00155521       0.61427009
Ru       8.10000000       6.23538291      10.00000000      -8.66530418      -0.00312547       0.00163187       0.61425287
Ru      10.80000000       6.23538291      10.00000000      -8.66651058       0.00514137       0.00305118       0.61852020
Ru       4.05000000       8.57365150      10.00000000      -8.66348743       0.00280439       0.00156373       0.62157047
Ru       6.75000000       8.57365150      10.00000000      -8.66543865      -0.00006589      -0.00644861       0.61364108
Ru       9.45000000       8.57365150      10.00000000      -8.66343880      -0.00291845       0.00154292       0.62144858
Ru      12.15000000       8.57365150      10.00000000      -8.66638470       0.00000560      -0.00597052       0.61875951
Ru       0.00000000       0.00000000      12.13840000      -9.35840702       0.01055290       0.00646449      -0.57934624
Ru       2.70000000       0.00000000      12.13840000      -9.35841274      -0.01265787       0.00645270      -0.57913113
Ru       5.40000000       0.00000000      12.13840000      -9.35267448      -0.01577231      -0.00151500      -0.64295709
Ru       8.10000000       0.00000000      12.13840000      -9.35267639       0.01364414      -0.00152680      -0.64315736
Ru       1.35000000       2.33826859      12.13840000      -9.35841084      -0.00086696      -0.01445708      -0.58014745
Ru       4.05000000       2.33826859      12.13840000      -9.36072063      -0.03080497      -0.01821610      -0.58654797
Ru       6.75000000       2.33826859      12.13840000      -9.35233879      -0.00102551      -0.01025965      -0.62667525
Ru       9.45000000       2.33826859      12.13840000      -9.36071873       0.02881840      -0.01804822      -0.58680928
Ru       2.70000000       4.67653718      12.13840000      -9.35254383      -0.00839561      -0.01203479      -0.64463991
Ru       5.40000000       4.67653718      12.13840000      -9.35227299      -0.00923118       0.00484223      -0.62636644
Ru       8.10000000       4.67653718      12.13840000      -9.35223579       0.00740693       0.00483264      -0.62652540
Ru      10.80000000       4.67653718      12.13840000      -9.35261250       0.00681038      -0.01197599      -0.64441919
Ru       4.05000000       7.01480577      12.13840000      -9.35272503       0.00587686       0.01297314      -0.64307994
Ru       6.75000000       7.01480577      12.13840000      -9.36085701      -0.00100003       0.03461075      -0.58585304
Ru       9.45000000       7.01480577      12.13840000      -9.35271072      -0.00760068       0.01300761      -0.64277512
Ru      12.15000000       7.01480577      12.13840000      -9.34656239      -0.00085703       0.00006280      -0.60971153
Ru       0.00749678       1.55411386      14.31520591      -9.40438175       0.00039188       0.00230226      -0.00026735
Ru       2.69160654       1.55424867      14.31523966      -9.40435886       0.00164566       0.00121099       0.00045780
Ru       5.40041103       1.55912374      14.29564757      -9.35435963       0.00097358      -0.00033792       0.00143216
Ru       8.09870652       1.55910874      14.29558821      -9.35440063       0.00012738       0.00000600       0.00164934
Ru       1.34961687       3.89266145      14.30214283      -9.39355564       0.00040427       0.00056675       0.00305584
Ru       4.05049017       3.89744948      14.29575094      -9.35452938       0.00063937       0.00114968       0.00075918
Ru       6.74967737       3.89695287      14.29340966      -9.33740044      -0.00000885       0.00060383       0.00032111
Ru       9.44877694       3.89755734      14.29565613      -9.35455322       0.00032992       0.00124175       0.00110279
Ru       2.70041820       6.23484392      14.30149809      -9.34217453       0.00005445       0.00024259       0.00007836
Ru       5.39962042       6.23424136      14.29566641      -9.35454082      -0.00000783       0.00018210       0.00110239
Ru       8.09948676       6.23442328      14.29562881      -9.35447502       0.00229280      -0.00105207       0.00205138
Ru      10.79898355       6.23472937      14.30162469      -9.34223652      -0.00122505       0.00130237      -0.00039781
Ru       4.05371014       8.57597138      14.30306663      -9.39276314      -0.00039295      -0.00042658      -0.00194820
Ru       6.74947218       8.58268685      14.31542568      -9.40336323       0.00108652       0.00021198      -0.00104340
Ru       9.44536823       8.57582383      14.30282702      -9.39264774       0.00205173       0.00080179       0.00191135
Ru      12.14954578       8.57417399      14.30149401      -9.34243679       0.00031805       0.00149960      -0.00004141
Ru      -0.02034479      -0.01153946      16.41547351      -8.68768311       0.00259338       0.00062653       0.00091432
Ru       2.71897291      -0.01184411      16.41549588      -8.68756104      -0.00032371       0.00301887       0.00094525
Ru       5.39427802       0.00176366      16.37259117      -8.74345779       0.00110625       0.00054042      -0.00179018
Ru       8.10438826       0.00172589      16.37243658      -8.74377155       0.00060686       0.00156679       0.00052755
Ru       1.34937884       2.36146825      16.41479077      -8.69027996       0.00146845      -0.00193431      -0.00095749
Ru       4.07144398       2.35056832      16.36498912      -8.70660019      -0.00118301       0.00099393      -0.00267084
Ru       6.74938918       2.33765568      16.36788005      -8.72161579       0.00112947      -0.00056727      -0.00045820
Ru       9.42763710       2.35068559      16.36482226      -8.70683384      -0.00071720       0.00090998      -0.00155619
Ru       2.69866598       4.67093971      16.37259546      -8.74372005       0.00067492      -0.00014601      -0.00158183
Ru       5.39923439       4.67664233      16.36785833      -8.72150898      -0.00064341       0.00054376      -0.00043668
Ru       8.09991919       4.67669792      16.36777540      -8.72157288       0.00022410       0.00033940       0.00002728
Ru      10.80035702       4.67079323      16.37265725      -8.74377251      -0.00007642       0.00135062      -0.00210425
Ru       4.05371397       7.01803586      16.37243670      -8.74385357       0.00061146      -0.00002242       0.00112266
Ru       6.74944325       6.99017404      16.36516142      -8.70782661       0.00046482       0.00009186      -0.00099213
Ru       9.44519283       7.01815095      16.37263723      -8.74350739       0.00094921      -0.00065864      -0.00161968
Ru      12.14962069       7.01465608      16.36674834      -8.71292782      -0.00106722       0.00017934      -0.00050986
C        1.34905575       0.78548508      18.02378452      -7.92857361       0.00189475      -0.00231283      -0.00371993
H        2.24497229       0.27038030      18.47417168      -3.94491887       0.00277814      -0.00414840      -0.00088308
H        0.45290163       0.27032126      18.47388241      -3.94519973      -0.00124018      -0.00087552      -0.00034629
H        1.34967653       1.82273311      18.46817142      -3.94803834      -0.00238441      -0.00396407      -0.00018707
